PROCAR new format
# of k-points:   21         # of bands:   24         # of ions:    5

 k-point     1 :    0.00000000 0.00000000 0.00000000     weight = 0.00591716

band     1 # energy  -51.18841955 # occ.  2.00000000

ion      s      p      d      f    tot
    1  0.487  0.000  0.000  0.000  0.487
    2  0.485  0.000  0.000  0.000  0.485
    3  0.000  0.000  0.000  0.000  0.000
    4  0.000  0.000  0.000  0.000  0.000
    5  0.000  0.000  0.000  0.000  0.000
tot    0.972  0.000  0.000  0.000  0.972

band     2 # energy  -51.14346737 # occ.  2.00000000

ion      s      p      d      f    tot
    1  0.486  0.000  0.000  0.000  0.486
    2  0.488  0.000  0.000  0.000  0.488
    3  0.000  0.000  0.000  0.000  0.000
    4  0.000  0.000  0.000  0.000  0.000
    5  0.000  0.000  0.000  0.000  0.000
tot    0.974  0.000  0.000  0.000  0.974

band     3 # energy  -29.97924676 # occ.  2.00000000

ion      s      p      d      f    tot
    1  0.000  0.463  0.000  0.000  0.463
    2  0.000  0.463  0.000  0.000  0.463
    3  0.002  0.000  0.000  0.000  0.002
    4  0.001  0.000  0.000  0.000  0.001
    5  0.001  0.000  0.000  0.000  0.001
tot    0.004  0.926  0.000  0.000  0.930

band     4 # energy  -29.71931681 # occ.  2.00000000

ion      s      p      d      f    tot
    1  0.000  0.471  0.000  0.000  0.471
    2  0.000  0.472  0.000  0.000  0.472
    3  0.000  0.000  0.000  0.000  0.000
    4  0.001  0.000  0.000  0.000  0.001
    5  0.001  0.000  0.000  0.000  0.001
tot    0.002  0.943  0.000  0.000  0.946

band     5 # energy  -29.71563146 # occ.  2.00000000

ion      s      p      d      f    tot
    1  0.000  0.475  0.000  0.000  0.475
    2  0.000  0.472  0.000  0.000  0.472
    3  0.000  0.000  0.000  0.000  0.000
    4  0.000  0.000  0.000  0.000  0.000
    5  0.000  0.000  0.000  0.000  0.000
tot    0.000  0.947  0.000  0.000  0.948

band     6 # energy  -29.71562515 # occ.  2.00000000

ion      s      p      d      f    tot
    1  0.000  0.475  0.000  0.000  0.475
    2  0.000  0.472  0.000  0.000  0.472
    3  0.000  0.000  0.000  0.000  0.000
    4  0.000  0.000  0.000  0.000  0.000
    5  0.000  0.000  0.000  0.000  0.000
tot    0.000  0.947  0.000  0.000  0.948

band     7 # energy  -29.67388257 # occ.  2.00000000

ion      s      p      d      f    tot
    1  0.000  0.473  0.000  0.000  0.473
    2  0.000  0.476  0.000  0.000  0.476
    3  0.000  0.000  0.000  0.000  0.000
    4  0.000  0.000  0.000  0.000  0.000
    5  0.000  0.000  0.000  0.000  0.000
tot    0.000  0.950  0.000  0.000  0.950

band     8 # energy  -29.67387818 # occ.  2.00000000

ion      s      p      d      f    tot
    1  0.000  0.473  0.000  0.000  0.473
    2  0.000  0.476  0.000  0.000  0.476
    3  0.000  0.000  0.000  0.000  0.000
    4  0.000  0.000  0.000  0.000  0.000
    5  0.000  0.000  0.000  0.000  0.000
tot    0.000  0.950  0.000  0.000  0.950

band     9 # energy  -18.22289801 # occ.  2.00000000

ion      s      p      d      f    tot
    1  0.003  0.003  0.000  0.000  0.007
    2  0.003  0.003  0.000  0.000  0.007
    3  0.002  0.000  0.000  0.000  0.002
    4  0.363  0.001  0.000  0.000  0.364
    5  0.370  0.001  0.000  0.000  0.371
tot    0.741  0.008  0.000  0.000  0.750

band    10 # energy  -18.19369581 # occ.  2.00000000

ion      s      p      d      f    tot
    1  0.002  0.005  0.000  0.000  0.007
    2  0.003  0.005  0.000  0.000  0.007
    3  0.000  0.000  0.000  0.000  0.000
    4  0.373  0.001  0.000  0.000  0.374
    5  0.366  0.001  0.000  0.000  0.367
tot    0.744  0.011  0.000  0.000  0.755

band    11 # energy  -11.53653916 # occ.  2.00000000

ion      s      p      d      f    tot
    1  0.025  0.011  0.001  0.000  0.037
    2  0.025  0.011  0.001  0.000  0.037
    3  0.400  0.000  0.000  0.000  0.400
    4  0.007  0.006  0.000  0.000  0.013
    5  0.007  0.006  0.000  0.000  0.013
tot    0.465  0.033  0.001  0.001  0.500

band    12 # energy   -7.27352929 # occ.  2.00000000

ion      s      p      d      f    tot
    1  0.018  0.001  0.015  0.000  0.034
    2  0.018  0.001  0.015  0.000  0.034
    3  0.000  0.035  0.000  0.000  0.035
    4  0.006  0.196  0.001  0.000  0.202
    5  0.006  0.196  0.001  0.000  0.202
tot    0.049  0.428  0.031  0.000  0.508

band    13 # energy   -6.40268090 # occ.  2.00000000

ion      s      p      d      f    tot
    1  0.003  0.005  0.002  0.001  0.011
    2  0.003  0.005  0.002  0.001  0.011
    3  0.039  0.000  0.000  0.000  0.039
    4  0.001  0.272  0.000  0.000  0.274
    5  0.001  0.272  0.000  0.000  0.274
tot    0.048  0.554  0.006  0.001  0.609

band    14 # energy   -5.19275483 # occ.  2.00000000

ion      s      p      d      f    tot
    1  0.000  0.000  0.041  0.000  0.041
    2  0.000  0.000  0.041  0.000  0.041
    3  0.000  0.026  0.000  0.000  0.026
    4  0.000  0.290  0.001  0.000  0.292
    5  0.000  0.291  0.001  0.000  0.293
tot    0.000  0.608  0.084  0.000  0.692

band    15 # energy   -5.19274189 # occ.  2.00000000

ion      s      p      d      f    tot
    1  0.000  0.000  0.041  0.000  0.041
    2  0.000  0.000  0.041  0.000  0.041
    3  0.000  0.026  0.000  0.000  0.026
    4  0.000  0.290  0.001  0.000  0.292
    5  0.000  0.291  0.001  0.000  0.293
tot    0.000  0.608  0.084  0.000  0.692

band    16 # energy   -5.02005166 # occ.  2.00000000

ion      s      p      d      f    tot
    1  0.000  0.001  0.022  0.000  0.023
    2  0.000  0.001  0.022  0.000  0.023
    3  0.000  0.000  0.000  0.000  0.000
    4  0.000  0.336  0.001  0.000  0.337
    5  0.000  0.335  0.001  0.000  0.336
tot    0.000  0.673  0.046  0.001  0.720

band    17 # energy   -5.02003481 # occ.  2.00000000

ion      s      p      d      f    tot
    1  0.000  0.001  0.022  0.000  0.023
    2  0.000  0.001  0.022  0.000  0.023
    3  0.000  0.000  0.000  0.000  0.000
    4  0.000  0.336  0.001  0.000  0.337
    5  0.000  0.335  0.001  0.000  0.336
tot    0.000  0.673  0.046  0.001  0.720

band    18 # energy   -3.65748957 # occ.  2.00000000

ion      s      p      d      f    tot
    1  0.009  0.002  0.057  0.001  0.069
    2  0.009  0.002  0.057  0.001  0.069
    3  0.000  0.186  0.000  0.000  0.186
    4  0.003  0.103  0.001  0.000  0.106
    5  0.003  0.103  0.001  0.000  0.106
tot    0.023  0.396  0.116  0.002  0.537

band    19 # energy   -2.76744582 # occ.  2.00000000

ion      s      p      d      f    tot
    1  0.000  0.004  0.094  0.001  0.099
    2  0.000  0.004  0.094  0.001  0.099
    3  0.000  0.275  0.000  0.000  0.275
    4  0.000  0.069  0.001  0.000  0.069
    5  0.000  0.069  0.001  0.000  0.069
tot    0.000  0.419  0.189  0.003  0.612

band    20 # energy   -2.76742783 # occ.  2.00000000

ion      s      p      d      f    tot
    1  0.000  0.004  0.094  0.001  0.099
    2  0.000  0.004  0.094  0.001  0.099
    3  0.000  0.275  0.000  0.000  0.275
    4  0.000  0.069  0.001  0.000  0.069
    5  0.000  0.069  0.001  0.000  0.069
tot    0.000  0.419  0.189  0.003  0.612

band    21 # energy   -0.29418920 # occ.  0.00000000

ion      s      p      d      f    tot
    1  0.000  0.000  0.319  0.000  0.319
    2  0.000  0.000  0.319  0.000  0.319
    3  0.000  0.000  0.004  0.000  0.004
    4  0.000  0.003  0.005  0.000  0.007
    5  0.000  0.003  0.005  0.000  0.007
tot    0.000  0.005  0.651  0.000  0.657

band    22 # energy   -0.29418356 # occ.  0.00000000

ion      s      p      d      f    tot
    1  0.000  0.000  0.319  0.000  0.319
    2  0.000  0.000  0.319  0.000  0.319
    3  0.000  0.000  0.004  0.000  0.004
    4  0.000  0.003  0.005  0.000  0.007
    5  0.000  0.003  0.005  0.000  0.007
tot    0.000  0.005  0.651  0.000  0.657

band    23 # energy   -0.01004817 # occ.  0.00000000

ion      s      p      d      f    tot
    1  0.001  0.000  0.310  0.000  0.312
    2  0.001  0.000  0.310  0.000  0.312
    3  0.000  0.000  0.003  0.000  0.003
    4  0.000  0.009  0.006  0.000  0.016
    5  0.000  0.009  0.006  0.000  0.016
tot    0.002  0.019  0.637  0.000  0.658

band    24 # energy    1.25723996 # occ.  0.00000000

ion      s      p      d      f    tot
    1  0.015  0.001  0.198  0.001  0.215
    2  0.015  0.001  0.198  0.001  0.214
    3  0.000  0.098  0.000  0.000  0.098
    4  0.023  0.000  0.013  0.000  0.036
    5  0.023  0.000  0.013  0.000  0.036
tot    0.075  0.100  0.421  0.003  0.598


 k-point     2 :    0.07692308 0.00000000 0.00000000     weight = 0.03550296

band     1 # energy  -51.18654666 # occ.  2.00000000

ion      s      p      d      f    tot
    1  0.487  0.000  0.000  0.000  0.487
    2  0.485  0.000  0.000  0.000  0.485
    3  0.000  0.000  0.000  0.000  0.000
    4  0.000  0.000  0.000  0.000  0.000
    5  0.000  0.000  0.000  0.000  0.000
tot    0.972  0.000  0.000  0.000  0.972

band     2 # energy  -51.14275580 # occ.  2.00000000

ion      s      p      d      f    tot
    1  0.486  0.000  0.000  0.000  0.486
    2  0.488  0.000  0.000  0.000  0.488
    3  0.000  0.000  0.000  0.000  0.000
    4  0.000  0.000  0.000  0.000  0.000
    5  0.000  0.000  0.000  0.000  0.000
tot    0.974  0.000  0.000  0.000  0.974

band     3 # energy  -29.97436346 # occ.  2.00000000

ion      s      p      d      f    tot
    1  0.000  0.463  0.000  0.000  0.463
    2  0.000  0.463  0.000  0.000  0.463
    3  0.002  0.000  0.000  0.000  0.002
    4  0.001  0.000  0.000  0.000  0.001
    5  0.001  0.000  0.000  0.000  0.001
tot    0.004  0.927  0.000  0.000  0.931

band     4 # energy  -29.74683190 # occ.  2.00000000

ion      s      p      d      f    tot
    1  0.000  0.472  0.000  0.000  0.472
    2  0.000  0.471  0.000  0.000  0.471
    3  0.000  0.000  0.000  0.000  0.000
    4  0.001  0.000  0.000  0.000  0.001
    5  0.001  0.000  0.000  0.000  0.001
tot    0.001  0.943  0.000  0.000  0.945

band     5 # energy  -29.72029619 # occ.  2.00000000

ion      s      p      d      f    tot
    1  0.000  0.475  0.000  0.000  0.475
    2  0.000  0.472  0.000  0.000  0.472
    3  0.000  0.000  0.000  0.000  0.000
    4  0.000  0.000  0.000  0.000  0.000
    5  0.000  0.000  0.000  0.000  0.000
tot    0.000  0.947  0.000  0.000  0.947

band     6 # energy  -29.70214416 # occ.  2.00000000

ion      s      p      d      f    tot
    1  0.000  0.474  0.000  0.000  0.474
    2  0.000  0.472  0.000  0.000  0.472
    3  0.000  0.000  0.000  0.000  0.000
    4  0.000  0.000  0.000  0.000  0.001
    5  0.000  0.000  0.000  0.000  0.001
tot    0.001  0.947  0.000  0.000  0.948

band     7 # energy  -29.68522527 # occ.  2.00000000

ion      s      p      d      f    tot
    1  0.000  0.472  0.000  0.000  0.472
    2  0.000  0.476  0.000  0.000  0.476
    3  0.000  0.000  0.000  0.000  0.000
    4  0.000  0.000  0.000  0.000  0.000
    5  0.000  0.000  0.000  0.000  0.000
tot    0.000  0.948  0.000  0.000  0.949

band     8 # energy  -29.67489938 # occ.  2.00000000

ion      s      p      d      f    tot
    1  0.000  0.473  0.000  0.000  0.473
    2  0.000  0.476  0.000  0.000  0.476
    3  0.000  0.000  0.000  0.000  0.000
    4  0.000  0.000  0.000  0.000  0.000
    5  0.000  0.000  0.000  0.000  0.000
tot    0.000  0.950  0.000  0.000  0.950

band     9 # energy  -18.19242464 # occ.  2.00000000

ion      s      p      d      f    tot
    1  0.003  0.003  0.000  0.000  0.007
    2  0.003  0.003  0.000  0.000  0.007
    3  0.001  0.000  0.000  0.000  0.001
    4  0.364  0.001  0.000  0.000  0.365
    5  0.372  0.001  0.000  0.000  0.373
tot    0.743  0.009  0.000  0.000  0.752

band    10 # energy  -18.16571025 # occ.  2.00000000

ion      s      p      d      f    tot
    1  0.002  0.005  0.000  0.000  0.007
    2  0.002  0.005  0.000  0.000  0.007
    3  0.000  0.000  0.000  0.000  0.000
    4  0.374  0.001  0.000  0.000  0.375
    5  0.367  0.001  0.000  0.000  0.367
tot    0.746  0.011  0.000  0.000  0.757

band    11 # energy  -11.49119842 # occ.  2.00000000

ion      s      p      d      f    tot
    1  0.024  0.011  0.001  0.000  0.037
    2  0.024  0.011  0.001  0.000  0.037
    3  0.404  0.000  0.000  0.000  0.404
    4  0.007  0.005  0.000  0.000  0.012
    5  0.007  0.005  0.000  0.000  0.012
tot    0.466  0.033  0.003  0.001  0.502

band    12 # energy   -7.20999463 # occ.  2.00000000

ion      s      p      d      f    tot
    1  0.018  0.002  0.014  0.000  0.033
    2  0.018  0.002  0.014  0.000  0.033
    3  0.000  0.033  0.000  0.000  0.033
    4  0.006  0.200  0.001  0.000  0.207
    5  0.006  0.200  0.001  0.000  0.207
tot    0.047  0.436  0.030  0.000  0.513

band    13 # energy   -6.44296134 # occ.  2.00000000

ion      s      p      d      f    tot
    1  0.003  0.004  0.008  0.001  0.015
    2  0.003  0.004  0.008  0.001  0.015
    3  0.035  0.003  0.000  0.000  0.037
    4  0.001  0.268  0.000  0.000  0.270
    5  0.001  0.268  0.000  0.000  0.269
tot    0.044  0.546  0.016  0.001  0.607

band    14 # energy   -5.28900098 # occ.  2.00000000

ion      s      p      d      f    tot
    1  0.000  0.002  0.030  0.000  0.032
    2  0.000  0.002  0.030  0.000  0.032
    3  0.003  0.017  0.000  0.000  0.020
    4  0.001  0.297  0.001  0.000  0.300
    5  0.001  0.300  0.001  0.000  0.303
tot    0.006  0.619  0.062  0.000  0.687

band    15 # energy   -5.23647733 # occ.  2.00000000

ion      s      p      d      f    tot
    1  0.001  0.001  0.021  0.000  0.024
    2  0.001  0.001  0.021  0.000  0.024
    3  0.000  0.005  0.000  0.000  0.005
    4  0.002  0.320  0.001  0.000  0.323
    5  0.002  0.317  0.001  0.000  0.320
tot    0.006  0.644  0.045  0.001  0.695

band    16 # energy   -5.20777773 # occ.  2.00000000

ion      s      p      d      f    tot
    1  0.000  0.000  0.038  0.000  0.039
    2  0.000  0.000  0.038  0.000  0.039
    3  0.000  0.023  0.000  0.000  0.023
    4  0.000  0.294  0.001  0.000  0.296
    5  0.000  0.295  0.001  0.000  0.297
tot    0.000  0.613  0.080  0.000  0.693

band    17 # energy   -5.05371778 # occ.  2.00000000

ion      s      p      d      f    tot
    1  0.000  0.001  0.021  0.000  0.023
    2  0.000  0.001  0.022  0.000  0.023
    3  0.000  0.000  0.000  0.000  0.000
    4  0.000  0.335  0.001  0.000  0.336
    5  0.000  0.334  0.001  0.000  0.335
tot    0.000  0.671  0.046  0.001  0.718

band    18 # energy   -3.61996579 # occ.  2.00000000

ion      s      p      d      f    tot
    1  0.008  0.003  0.059  0.001  0.071
    2  0.008  0.003  0.059  0.001  0.071
    3  0.000  0.186  0.000  0.000  0.186
    4  0.002  0.106  0.001  0.000  0.108
    5  0.002  0.106  0.001  0.000  0.108
tot    0.019  0.403  0.120  0.002  0.544

band    19 # energy   -2.96472601 # occ.  2.00000000

ion      s      p      d      f    tot
    1  0.002  0.004  0.097  0.001  0.104
    2  0.002  0.004  0.097  0.001  0.104
    3  0.002  0.270  0.000  0.000  0.272
    4  0.001  0.049  0.001  0.000  0.051
    5  0.001  0.049  0.001  0.000  0.051
tot    0.008  0.378  0.196  0.003  0.584

band    20 # energy   -2.81632873 # occ.  2.00000000

ion      s      p      d      f    tot
    1  0.000  0.004  0.098  0.001  0.104
    2  0.000  0.004  0.098  0.001  0.104
    3  0.000  0.277  0.000  0.000  0.277
    4  0.000  0.059  0.001  0.000  0.060
    5  0.000  0.059  0.001  0.000  0.060
tot    0.000  0.403  0.198  0.003  0.603

band    21 # energy   -0.39819392 # occ.  0.00000000

ion      s      p      d      f    tot
    1  0.000  0.000  0.303  0.000  0.304
    2  0.000  0.000  0.303  0.000  0.304
    3  0.000  0.005  0.004  0.000  0.009
    4  0.000  0.007  0.005  0.000  0.012
    5  0.000  0.007  0.005  0.000  0.012
tot    0.002  0.019  0.620  0.000  0.641

band    22 # energy   -0.19849177 # occ.  0.00000000

ion      s      p      d      f    tot
    1  0.000  0.000  0.319  0.000  0.319
    2  0.000  0.000  0.319  0.000  0.319
    3  0.000  0.002  0.004  0.000  0.006
    4  0.000  0.006  0.004  0.000  0.010
    5  0.000  0.006  0.004  0.000  0.010
tot    0.000  0.014  0.651  0.000  0.665

band    23 # energy    0.04337109 # occ.  0.00000000

ion      s      p      d      f    tot
    1  0.000  0.000  0.308  0.000  0.309
    2  0.000  0.000  0.308  0.000  0.309
    3  0.000  0.004  0.003  0.000  0.007
    4  0.000  0.013  0.006  0.000  0.019
    5  0.000  0.013  0.006  0.000  0.019
tot    0.001  0.031  0.631  0.000  0.663

band    24 # energy    1.01064281 # occ.  0.00000000

ion      s      p      d      f    tot
    1  0.000  0.000  0.360  0.000  0.360
    2  0.000  0.000  0.286  0.000  0.287
    3  0.000  0.019  0.004  0.000  0.024
    4  0.000  0.030  0.009  0.000  0.039
    5  0.001  0.030  0.011  0.000  0.042
tot    0.002  0.080  0.670  0.000  0.752


 k-point     3 :    0.15384615 0.00000000 0.00000000     weight = 0.03550296

band     1 # energy  -51.18127115 # occ.  2.00000000

ion      s      p      d      f    tot
    1  0.488  0.000  0.000  0.000  0.488
    2  0.485  0.000  0.000  0.000  0.485
    3  0.000  0.000  0.000  0.000  0.000
    4  0.000  0.000  0.000  0.000  0.000
    5  0.000  0.000  0.000  0.000  0.000
tot    0.973  0.000  0.000  0.000  0.973

band     2 # energy  -51.14087502 # occ.  2.00000000

ion      s      p      d      f    tot
    1  0.486  0.000  0.000  0.000  0.486
    2  0.489  0.000  0.000  0.000  0.489
    3  0.000  0.000  0.000  0.000  0.000
    4  0.000  0.000  0.000  0.000  0.000
    5  0.000  0.000  0.000  0.000  0.000
tot    0.974  0.000  0.000  0.000  0.975

band     3 # energy  -29.96133484 # occ.  2.00000000

ion      s      p      d      f    tot
    1  0.000  0.464  0.000  0.000  0.464
    2  0.000  0.464  0.000  0.000  0.464
    3  0.002  0.000  0.000  0.000  0.002
    4  0.001  0.000  0.000  0.000  0.001
    5  0.001  0.000  0.000  0.000  0.001
tot    0.003  0.928  0.000  0.000  0.932

band     4 # energy  -29.79085691 # occ.  2.00000000

ion      s      p      d      f    tot
    1  0.000  0.471  0.000  0.000  0.471
    2  0.000  0.469  0.000  0.000  0.469
    3  0.000  0.000  0.000  0.000  0.000
    4  0.001  0.000  0.000  0.000  0.001
    5  0.001  0.000  0.000  0.000  0.001
tot    0.001  0.940  0.000  0.000  0.942

band     5 # energy  -29.73258954 # occ.  2.00000000

ion      s      p      d      f    tot
    1  0.000  0.474  0.000  0.000  0.474
    2  0.000  0.472  0.000  0.000  0.472
    3  0.000  0.000  0.000  0.000  0.000
    4  0.000  0.000  0.000  0.000  0.000
    5  0.000  0.000  0.000  0.000  0.000
tot    0.000  0.946  0.000  0.000  0.947

band     6 # energy  -29.71862664 # occ.  2.00000000

ion      s      p      d      f    tot
    1  0.000  0.472  0.000  0.000  0.472
    2  0.000  0.473  0.000  0.000  0.473
    3  0.000  0.000  0.000  0.000  0.000
    4  0.000  0.000  0.000  0.000  0.000
    5  0.000  0.000  0.000  0.000  0.000
tot    0.001  0.945  0.000  0.000  0.946

band     7 # energy  -29.69411399 # occ.  2.00000000

ion      s      p      d      f    tot
    1  0.000  0.473  0.000  0.000  0.473
    2  0.000  0.474  0.000  0.000  0.474
    3  0.000  0.000  0.000  0.000  0.000
    4  0.000  0.000  0.000  0.000  0.000
    5  0.000  0.000  0.000  0.000  0.000
tot    0.001  0.947  0.000  0.000  0.948

band     8 # energy  -29.67835282 # occ.  2.00000000

ion      s      p      d      f    tot
    1  0.000  0.473  0.000  0.000  0.473
    2  0.000  0.475  0.000  0.000  0.476
    3  0.000  0.000  0.000  0.000  0.000
    4  0.000  0.000  0.000  0.000  0.000
    5  0.000  0.000  0.000  0.000  0.000
tot    0.000  0.949  0.000  0.000  0.949

band     9 # energy  -18.10716984 # occ.  2.00000000

ion      s      p      d      f    tot
    1  0.003  0.004  0.000  0.000  0.007
    2  0.003  0.004  0.000  0.000  0.006
    3  0.001  0.000  0.000  0.000  0.001
    4  0.367  0.001  0.000  0.000  0.368
    5  0.377  0.001  0.000  0.000  0.378
tot    0.750  0.009  0.001  0.000  0.760

band    10 # energy  -18.08691919 # occ.  2.00000000

ion      s      p      d      f    tot
    1  0.002  0.004  0.000  0.000  0.007
    2  0.002  0.005  0.000  0.000  0.007
    3  0.000  0.000  0.000  0.000  0.000
    4  0.379  0.001  0.000  0.000  0.380
    5  0.369  0.001  0.000  0.000  0.370
tot    0.752  0.011  0.001  0.000  0.764

band    11 # energy  -11.36353978 # occ.  2.00000000

ion      s      p      d      f    tot
    1  0.022  0.012  0.003  0.000  0.037
    2  0.022  0.012  0.003  0.000  0.037
    3  0.414  0.000  0.000  0.000  0.414
    4  0.005  0.005  0.000  0.000  0.010
    5  0.005  0.005  0.000  0.000  0.010
tot    0.468  0.033  0.007  0.001  0.509

band    12 # energy   -7.03547993 # occ.  2.00000000

ion      s      p      d      f    tot
    1  0.015  0.003  0.013  0.000  0.031
    2  0.015  0.003  0.013  0.000  0.031
    3  0.000  0.028  0.000  0.000  0.028
    4  0.006  0.213  0.001  0.000  0.219
    5  0.006  0.213  0.001  0.000  0.219
tot    0.042  0.460  0.027  0.000  0.529

band    13 # energy   -6.53351031 # occ.  2.00000000

ion      s      p      d      f    tot
    1  0.003  0.002  0.017  0.000  0.023
    2  0.003  0.002  0.017  0.000  0.023
    3  0.024  0.008  0.000  0.000  0.032
    4  0.001  0.260  0.001  0.000  0.262
    5  0.001  0.260  0.001  0.000  0.261
tot    0.033  0.531  0.035  0.001  0.601

band    14 # energy   -5.75085315 # occ.  2.00000000

ion      s      p      d      f    tot
    1  0.003  0.002  0.018  0.000  0.023
    2  0.003  0.002  0.018  0.000  0.023
    3  0.000  0.008  0.000  0.000  0.008
    4  0.004  0.291  0.001  0.000  0.297
    5  0.004  0.292  0.001  0.000  0.298
tot    0.014  0.595  0.040  0.001  0.649

band    15 # energy   -5.59746635 # occ.  2.00000000

ion      s      p      d      f    tot
    1  0.001  0.005  0.011  0.000  0.018
    2  0.001  0.005  0.011  0.000  0.018
    3  0.010  0.003  0.000  0.000  0.013
    4  0.004  0.305  0.001  0.000  0.310
    5  0.004  0.304  0.001  0.000  0.310
tot    0.022  0.621  0.025  0.001  0.669

band    16 # energy   -5.25618332 # occ.  2.00000000

ion      s      p      d      f    tot
    1  0.000  0.001  0.033  0.000  0.034
    2  0.000  0.001  0.033  0.000  0.034
    3  0.000  0.017  0.000  0.000  0.017
    4  0.000  0.303  0.001  0.000  0.304
    5  0.000  0.304  0.001  0.000  0.306
tot    0.000  0.626  0.068  0.000  0.695

band    17 # energy   -5.14638297 # occ.  2.00000000

ion      s      p      d      f    tot
    1  0.000  0.001  0.021  0.000  0.022
    2  0.000  0.001  0.021  0.000  0.023
    3  0.000  0.000  0.000  0.000  0.000
    4  0.000  0.333  0.001  0.000  0.334
    5  0.000  0.331  0.001  0.000  0.332
tot    0.000  0.666  0.044  0.001  0.711

band    18 # energy   -3.57372096 # occ.  2.00000000

ion      s      p      d      f    tot
    1  0.006  0.004  0.067  0.001  0.078
    2  0.006  0.004  0.067  0.001  0.078
    3  0.000  0.197  0.000  0.000  0.197
    4  0.000  0.095  0.001  0.000  0.096
    5  0.000  0.095  0.001  0.000  0.096
tot    0.014  0.395  0.136  0.002  0.546

band    19 # energy   -3.36722235 # occ.  2.00000000

ion      s      p      d      f    tot
    1  0.005  0.007  0.092  0.001  0.105
    2  0.005  0.007  0.092  0.001  0.105
    3  0.004  0.259  0.000  0.000  0.263
    4  0.002  0.029  0.001  0.000  0.031
    5  0.002  0.029  0.001  0.000  0.031
tot    0.018  0.331  0.186  0.002  0.537

band    20 # energy   -2.91826174 # occ.  2.00000000

ion      s      p      d      f    tot
    1  0.000  0.005  0.105  0.001  0.112
    2  0.000  0.005  0.105  0.001  0.112
    3  0.000  0.283  0.000  0.000  0.283
    4  0.000  0.039  0.001  0.000  0.040
    5  0.000  0.039  0.001  0.000  0.040
tot    0.000  0.372  0.212  0.002  0.586

band    21 # energy   -0.70753293 # occ.  0.00000000

ion      s      p      d      f    tot
    1  0.001  0.000  0.279  0.000  0.281
    2  0.001  0.000  0.279  0.000  0.281
    3  0.000  0.008  0.004  0.000  0.012
    4  0.000  0.010  0.005  0.000  0.016
    5  0.000  0.010  0.005  0.000  0.016
tot    0.002  0.029  0.574  0.001  0.606

band    22 # energy    0.05327216 # occ.  0.00000000

ion      s      p      d      f    tot
    1  0.000  0.000  0.324  0.000  0.324
    2  0.000  0.000  0.324  0.000  0.324
    3  0.000  0.004  0.003  0.000  0.008
    4  0.000  0.010  0.004  0.000  0.014
    5  0.000  0.010  0.004  0.000  0.014
tot    0.000  0.025  0.658  0.000  0.684

band    23 # energy    0.20531190 # occ.  0.00000000

ion      s      p      d      f    tot
    1  0.000  0.000  0.300  0.000  0.301
    2  0.000  0.000  0.300  0.000  0.301
    3  0.000  0.013  0.003  0.000  0.016
    4  0.001  0.020  0.006  0.000  0.026
    5  0.001  0.020  0.006  0.000  0.026
tot    0.001  0.054  0.614  0.001  0.671

band    24 # energy    0.95499568 # occ.  0.00000000

ion      s      p      d      f    tot
    1  0.000  0.000  0.354  0.000  0.354
    2  0.000  0.000  0.279  0.000  0.280
    3  0.001  0.010  0.003  0.000  0.013
    4  0.003  0.026  0.008  0.000  0.037
    5  0.007  0.026  0.009  0.000  0.041
tot    0.011  0.062  0.653  0.000  0.726


 k-point     4 :    0.23076923 0.00000000 0.00000000     weight = 0.03550296

band     1 # energy  -51.17355116 # occ.  2.00000000

ion      s      p      d      f    tot
    1  0.488  0.000  0.000  0.000  0.488
    2  0.485  0.000  0.000  0.000  0.485
    3  0.000  0.000  0.000  0.000  0.000
    4  0.000  0.000  0.000  0.000  0.000
    5  0.000  0.000  0.000  0.000  0.000
tot    0.973  0.000  0.000  0.000  0.973

band     2 # energy  -51.13849385 # occ.  2.00000000

ion      s      p      d      f    tot
    1  0.486  0.000  0.000  0.000  0.486
    2  0.489  0.000  0.000  0.000  0.489
    3  0.000  0.000  0.000  0.000  0.000
    4  0.000  0.000  0.000  0.000  0.000
    5  0.000  0.000  0.000  0.000  0.000
tot    0.975  0.000  0.000  0.000  0.975

band     3 # energy  -29.94579835 # occ.  2.00000000

ion      s      p      d      f    tot
    1  0.000  0.465  0.000  0.000  0.465
    2  0.000  0.465  0.000  0.000  0.465
    3  0.002  0.000  0.000  0.000  0.002
    4  0.000  0.000  0.000  0.000  0.000
    5  0.000  0.000  0.000  0.000  0.000
tot    0.003  0.930  0.000  0.000  0.933

band     4 # energy  -29.84484025 # occ.  2.00000000

ion      s      p      d      f    tot
    1  0.000  0.468  0.000  0.000  0.468
    2  0.000  0.467  0.000  0.000  0.467
    3  0.000  0.000  0.000  0.000  0.001
    4  0.001  0.000  0.000  0.000  0.001
    5  0.001  0.000  0.000  0.000  0.001
tot    0.002  0.936  0.000  0.000  0.938

band     5 # energy  -29.75770562 # occ.  2.00000000

ion      s      p      d      f    tot
    1  0.000  0.470  0.000  0.000  0.470
    2  0.000  0.471  0.000  0.000  0.471
    3  0.000  0.000  0.000  0.000  0.000
    4  0.001  0.000  0.000  0.000  0.001
    5  0.001  0.000  0.000  0.000  0.001
tot    0.001  0.942  0.000  0.000  0.943

band     6 # energy  -29.74888271 # occ.  2.00000000

ion      s      p      d      f    tot
    1  0.000  0.473  0.000  0.000  0.473
    2  0.000  0.471  0.000  0.000  0.471
    3  0.000  0.000  0.000  0.000  0.000
    4  0.000  0.000  0.000  0.000  0.000
    5  0.000  0.000  0.000  0.000  0.000
tot    0.000  0.945  0.000  0.000  0.945

band     7 # energy  -29.69504574 # occ.  2.00000000

ion      s      p      d      f    tot
    1  0.000  0.473  0.000  0.000  0.473
    2  0.000  0.474  0.000  0.000  0.474
    3  0.000  0.000  0.000  0.000  0.000
    4  0.000  0.000  0.000  0.000  0.000
    5  0.000  0.000  0.000  0.000  0.000
tot    0.000  0.947  0.000  0.000  0.948

band     8 # energy  -29.68421212 # occ.  2.00000000

ion      s      p      d      f    tot
    1  0.000  0.473  0.000  0.000  0.473
    2  0.000  0.475  0.000  0.000  0.475
    3  0.000  0.000  0.000  0.000  0.000
    4  0.000  0.000  0.000  0.000  0.000
    5  0.000  0.000  0.000  0.000  0.000
tot    0.000  0.949  0.000  0.000  0.949

band     9 # energy  -17.98477078 # occ.  2.00000000

ion      s      p      d      f    tot
    1  0.002  0.004  0.001  0.000  0.007
    2  0.002  0.004  0.001  0.000  0.006
    3  0.000  0.000  0.000  0.000  0.001
    4  0.369  0.001  0.000  0.000  0.370
    5  0.387  0.001  0.000  0.000  0.388
tot    0.760  0.010  0.001  0.000  0.771

band    10 # energy  -17.97251053 # occ.  2.00000000

ion      s      p      d      f    tot
    1  0.002  0.004  0.001  0.000  0.006
    2  0.002  0.004  0.001  0.000  0.007
    3  0.000  0.000  0.000  0.000  0.000
    4  0.388  0.001  0.000  0.000  0.389
    5  0.370  0.001  0.000  0.000  0.371
tot    0.761  0.011  0.001  0.000  0.773

band    11 # energy  -11.17717313 # occ.  2.00000000

ion      s      p      d      f    tot
    1  0.018  0.013  0.007  0.000  0.038
    2  0.018  0.013  0.007  0.000  0.038
    3  0.428  0.001  0.000  0.000  0.429
    4  0.003  0.004  0.000  0.000  0.007
    5  0.003  0.004  0.000  0.000  0.007
tot    0.470  0.034  0.014  0.001  0.519

band    12 # energy   -6.80105385 # occ.  2.00000000

ion      s      p      d      f    tot
    1  0.012  0.004  0.013  0.000  0.029
    2  0.012  0.004  0.013  0.000  0.029
    3  0.000  0.021  0.000  0.000  0.022
    4  0.006  0.231  0.001  0.000  0.237
    5  0.006  0.231  0.001  0.000  0.238
tot    0.035  0.492  0.027  0.000  0.555

band    13 # energy   -6.61737278 # occ.  2.00000000

ion      s      p      d      f    tot
    1  0.002  0.003  0.021  0.000  0.027
    2  0.002  0.003  0.021  0.000  0.027
    3  0.009  0.011  0.000  0.000  0.019
    4  0.001  0.257  0.001  0.000  0.259
    5  0.001  0.256  0.001  0.000  0.258
tot    0.016  0.530  0.044  0.000  0.590

band    14 # energy   -6.35759896 # occ.  2.00000000

ion      s      p      d      f    tot
    1  0.004  0.003  0.015  0.000  0.022
    2  0.004  0.003  0.015  0.000  0.022
    3  0.000  0.007  0.000  0.000  0.008
    4  0.005  0.271  0.001  0.000  0.277
    5  0.005  0.271  0.001  0.000  0.278
tot    0.018  0.555  0.032  0.000  0.606

band    15 # energy   -6.09318603 # occ.  2.00000000

ion      s      p      d      f    tot
    1  0.004  0.005  0.005  0.000  0.014
    2  0.004  0.005  0.005  0.000  0.014
    3  0.020  0.001  0.000  0.000  0.022
    4  0.008  0.285  0.001  0.000  0.293
    5  0.008  0.284  0.001  0.000  0.292
tot    0.044  0.580  0.011  0.001  0.636
